# vtk DataFile Version 4.2
Generated by Aspherix
ASCII
DATASET POLYDATA
POINTS 18748 float
-0.013745 -0.0110038 -0.0970824 -0.00936071 -0.011004 -0.0978067 -0.00367564 -0.0108955 -0.0981973 
-0.000243124 -0.0110003 -0.0980832 0.00337488 -0.0110019 -0.0979817 0.00898069 -0.0110038 -0.0977948 
0.011396 -0.0115003 -0.0982091 0.0123841 -0.0115006 -0.098055 0.0133721 -0.0115009 -0.0979009 
0.0143602 -0.0115012 -0.0977467 0.0153482 -0.0115014 -0.0975926 -0.013664 -0.00856291 -0.097596 
-0.0126777 -0.00854672 -0.0977597 -0.0116913 -0.00853053 -0.0979234 -0.0107049 -0.00851435 -0.0980871 
-0.00971853 -0.00849816 -0.0982508 -0.00627744 -0.0092738 -0.0982839 -0.00272514 -0.00845823 -0.0986611 
-0.00185113 -0.00894329 -0.0986323 0.000328149 -0.00808964 -0.0977199 0.00121449 -0.00833445 -0.098113 
0.00210083 -0.00857927 -0.098506 0.00457583 -0.00886184 -0.0984243 0.00670459 -0.0091651 -0.0971567 
0.0107293 -0.00823423 -0.0977223 0.0129558 -0.00954022 -0.0981365 0.0139298 -0.00951968 -0.0979108 
0.0149038 -0.00949914 -0.097685 0.0158778 -0.0094786 -0.0974593 0.0168517 -0.00945806 -0.0972336 
-0.00534716 -0.00700305 -0.0987474 -0.00447315 -0.00748811 -0.0987186 -0.00386739 -0.00707707 -0.0968115 
-0.00359914 -0.00797317 -0.0986899 -0.00313359 -0.00604896 -0.0983612 -0.00213742 -0.00612334 -0.0984071 
-0.00144453 -0.0076 -0.0969339 -0.00114125 -0.00619772 -0.098453 -0.00055819 -0.00784482 -0.0973269 
-0.000145071 -0.0062721 -0.0984989 0.000851103 -0.00634648 -0.0985447 0.00313634 -0.00623022 -0.0984735 
0.00361617 -0.00710743 -0.0984571 0.004096 -0.00798463 -0.0984407 0.00797366 -0.00651474 -0.0978119 
0.0138614 -0.00688481 -0.0974168 -0.0142283 -0.00540586 -0.0974933 -0.0134084 -0.00485054 -0.0976324 
-0.0125885 -0.00429523 -0.0977715 -0.00994419 -0.00597569 -0.0977113 -0.00552649 -0.00447169 -0.0982531 
0.00265651 -0.00535301 -0.0984899 0.00457912 -0.00458073 -0.0979047 0.00524724 -0.00513095 -0.0984056 
0.0103767 -0.00567143 -0.0982462 0.0109519 -0.00485376 -0.0982247 0.0115272 -0.00403609 -0.0982033 
-0.0140547 -0.00241559 -0.0970263 -0.0117685 -0.00373992 -0.0979105 -0.0109486 -0.0031846 -0.0980496 
-0.00866871 -0.00235985 -0.0984241 -0.0084807 -0.00313439 -0.0978201 -0.00829269 -0.00390893 -0.0972162 
-0.00213613 -0.0036383 -0.0981544 0.000851232 -0.00365413 -0.0980509 0.00341111 -0.00219363 -0.0984604 
0.0032429 -0.0034803 -0.0969029 0.00391101 -0.00403052 -0.0974038 0.0071773 -0.00250966 -0.0983394 
0.00812935 -0.00220509 -0.0983106 0.0121025 -0.00321842 -0.0981818 0.0126778 -0.00240076 -0.0981604 
0.0146367 -0.00398701 -0.0972366 -0.0110697 -0.000706369 -0.0975239 -0.00600443 -0.00131383 -0.0982723 
-0.00270738 -0.000645316 -0.0981608 -0.000183474 -0.000442925 -0.0985786 0.000715173 -0.000880601 -0.098549 
0.00161382 -0.00131828 -0.0985195 0.00251247 -0.00175595 -0.0984899 0.00560434 -0.000520309 -0.0978878 
0.0090814 -0.00190052 -0.0982818 0.0100335 -0.00159594 -0.098253 0.0109855 -0.00129137 -0.0982242 
0.0152048 -0.00104633 -0.0971041 -0.018094 0.00199738 -0.0968679 -0.0125593 0.00189866 -0.0972816 
-0.00821326 0.000679009 -0.0984973 -0.00733053 0.0011452 -0.098556 -0.0064478 0.0016114 -0.0986148 
-0.0046013 0.00181165 -0.0968241 -0.00421588 0.000890117 -0.0968713 0.00116798 0.00127742 -0.0985331 
0.0028469 0.000263667 -0.0969903 0.00693636 0.00184913 -0.0983546 0.00787825 0.00151475 -0.0983224 
0.00882014 0.00118037 -0.0982903 0.0117886 0.00130453 -0.0976667 0.0153719 0.00197363 -0.0970681 
-0.00981633 0.00305594 -0.0977303 -0.0075644 0.00368702 -0.0986073 -0.00661331 0.00399509 -0.09863 
-0.00556507 0.00207759 -0.0986736 -0.00468235 0.00254379 -0.0987323 -0.00498673 0.00273318 -0.096777 
-0.000833504 0.00390759 -0.098113 0.00179783 0.00205394 -0.0985159 0.00242769 0.00283046 -0.0984987 
0.00305755 0.00360698 -0.0984815 0.00505258 0.00251789 -0.0984188 0.00599447 0.00218351 -0.0983867 
0.0070941 0.00363478 -0.0974748 0.00638215 0.00398283 -0.0968649 0.0102496 0.00325022 -0.0982364 
-0.0180375 0.00594802 -0.0968773 -0.0170772 0.00571757 -0.0970346 -0.0111997 0.00570124 -0.0975017 
-0.00566222 0.00430316 -0.0986527 -0.00471113 0.00461123 -0.0986753 -0.00376003 0.00491931 -0.098698 
-0.00328567 0.0056353 -0.0968957 -0.00235095 0.00596652 -0.0970245 0.0036874 0.00438351 -0.0984643 
0.00790326 0.00540325 -0.0979193 0.0099817 0.00523217 -0.0982459 0.0101157 0.00424119 -0.0982412 
0.0141637 0.00539543 -0.0973378 -0.0150285 0.0074241 -0.0968714 -0.00820517 0.00608892 -0.0979921 
-0.00141624 0.00629775 -0.0971534 -0.000481532 0.00662898 -0.0972822 0.000453179 0.0069602 -0.0974111 
0.00286466 0.00669653 -0.0979898 0.00564755 0.00680791 -0.0968913 0.00801871 0.00628548 -0.0974629 
0.00813415 0.00716771 -0.0970064 0.00984775 0.00622314 -0.0982506 0.00971379 0.00721412 -0.0982554 
0.0120057 0.00801478 -0.0976791 -0.0127955 0.00825329 -0.0977401 -0.0118193 0.0083985 -0.0979013 
-0.0108431 0.00854371 -0.0980625 -0.00986691 0.00868891 -0.0982237 -0.00889073 0.00883412 -0.0983849 
-0.00443727 0.00909746 -0.0982256 -0.000724685 0.00905787 -0.0981094 0.00349479 0.00922427 -0.0984647 
0.00447717 0.00904056 -0.0984303 0.00545955 0.00885685 -0.098396 0.00644193 0.00867313 -0.0983616 
0.00742431 0.00848942 -0.0983272 0.0149509 0.00834036 -0.0971765 -0.0142594 0.0110014 -0.096993 
-0.011303 0.0109697 -0.0974867 -0.00736808 0.0110018 -0.0981399 -0.00498737 0.0114992 -0.0987387 
-0.00398784 0.0114979 -0.0987081 -0.00298831 0.0114967 -0.0986775 -0.00198878 0.0114955 -0.0986468 
-0.00098925 0.0114943 -0.0986162 0.000627136 0.0115255 -0.0971929 0.00153105 0.0115006 -0.0976198 
0.00243497 0.0114758 -0.0980468 0.00333889 0.011451 -0.0984738 0.00540093 0.0110302 -0.0971369 
0.00831236 0.0108488 -0.0978048 0.0118133 0.0110052 -0.0976893 0.0162623 0.0110057 -0.0968611 
-0.0230399 -0.0110081 -0.0955627 -0.0195496 -0.0106625 -0.0966262 -0.0170748 -0.0110042 -0.0965405 
-0.0112219 -0.0110622 -0.0954641 -0.00875191 -0.0102835 -0.0951839 -0.008192 -0.0109997 -0.0956005 
-0.00565318 -0.0110659 -0.0959607 -0.00205294 -0.010584 -0.0961717 0.000712939 -0.0115631 -0.0953955 
0.00171044 -0.0115654 -0.0954661 0.00270793 -0.0115677 -0.0955368 0.00370543 -0.01157 -0.0956075 
0.00470293 -0.0115722 -0.0956782 0.00780371 -0.0110693 -0.0950654 0.0120389 -0.0107542 -0.0957226 
0.0159669 -0.0110452 -0.0952098 0.0201118 -0.0109872 -0.0959612 0.023027 -0.0108427 -0.0952804 
0.0254939 -0.0112106 -0.0952188 0.0264659 -0.0112703 -0.0949913 0.0274378 -0.01133 -0.0947639 
-0.0274767 -0.0092364 -0.0949254 -0.0250336 -0.00880395 -0.0952167 -0.0194845 -0.00966469 -0.0966371 
-0.0194194 -0.00866687 -0.0966481 -0.0179904 -0.00816717 -0.0952923 -0.0171062 -0.00862468 -0.0951986 
-0.0162219 -0.00908219 -0.0951048 -0.0153377 -0.00953969 -0.0950111 -0.0144534 -0.0099972 -0.0949173 
-0.00931181 -0.00956731 -0.0947673 -0.00936738 -0.00828977 -0.0962989 -0.008554 -0.00879396 -0.096589 
-0.00296016 -0.00883053 -0.0964916 -0.00250655 -0.00970726 -0.0963317 0.000494753 -0.00945266 -0.0962713 
0.00146799 -0.00922782 -0.0963189 0.00244122 -0.00900298 -0.0963665 0.00341445 -0.00877813 -0.0964141 
0.00438768 -0.00855329 -0.0964616 0.00943121 -0.00870696 -0.0956492 0.00974575 -0.00965228 -0.0957354 
0.0123041 -0.00828484 -0.0954555 0.0133015 -0.00835359 -0.0954759 0.014299 -0.00842235 -0.0954963 
0.0152964 -0.00849111 -0.0955166 0.0162938 -0.00855986 -0.095537 -0.027149 -0.00686103 -0.0950505 
-0.0262395 -0.00662598 -0.0953933 -0.0216692 -0.00802863 -0.095783 -0.0192893 -0.00667123 -0.09667 
-0.0193543 -0.00766905 -0.096659 -0.0147686 -0.00718862 -0.0958309 -0.0118075 -0.0067772 -0.0954284 
-0.0109942 -0.00728139 -0.0957185 -0.0101808 -0.00778558 -0.0960087 -0.00623091 -0.00730886 -0.0960345 
-0.00341378 -0.0079538 -0.0966515 -0.00276644 -0.00776213 -0.0947623 -0.00188182 -0.00730943 -0.0948742 
0.00541318 -0.00629071 -0.0962011 0.00880213 -0.00681632 -0.0954767 0.00911667 -0.00776164 -0.095563 
0.0203184 -0.00799894 -0.0959158 0.0244729 -0.00793403 -0.0949432 -0.0229823 -0.00551554 -0.0960586 
-0.0219992 -0.00534885 -0.0959829 -0.0210161 -0.00518215 -0.0959072 -0.020033 -0.00501545 -0.0958315 
-0.0190499 -0.00484876 -0.0957558 -0.0165562 -0.00491691 -0.096623 -0.0109442 -0.00412133 -0.0955903 
-0.00810469 -0.00468347 -0.0966123 -0.00791668 -0.00545801 -0.0960083 -0.00114705 -0.00510079 -0.0957461 
0.0017208 -0.00588061 -0.096249 0.00848759 -0.005871 -0.0953905 0.00981229 -0.00411677 -0.0963871 
0.0103389 -0.00496676 -0.0963732 0.0179851 -0.00568151 -0.0964559 0.0202957 -0.00470949 -0.0964293 
0.0212472 -0.00449655 -0.0962074 0.0221988 -0.00428361 -0.0959856 0.0231503 -0.00407067 -0.0957638 
0.0259614 -0.00572963 -0.0951137 -0.0277437 -0.00246212 -0.0948253 -0.0269339 -0.00296317 -0.0951305 
-0.0231912 -0.00308288 -0.0955222 -0.0209168 -0.00212017 -0.0951811 -0.018333 -0.00252352 -0.0963329 
-0.0161883 -0.00206527 -0.0948868 -0.00906058 -0.00259787 -0.0949726 -0.00667031 -0.00323794 -0.0951555 
-0.00376779 -0.00291593 -0.0957692 0.00257478 -0.00293009 -0.096402 0.0067495 -0.00312669 -0.0951779 
0.00875905 -0.0024168 -0.0964148 0.00928567 -0.00326679 -0.0964009 0.0138285 -0.0022054 -0.0953767 
0.0182094 -0.00256361 -0.0964005 0.0241019 -0.00385773 -0.0955419 -0.0223814 -0.000804076 -0.0961548 
-0.0198918 -2.39541e-06 -0.0951565 -0.0191316 -0.000227379 -0.095766 -0.0162863 -0.000311933 -0.096661 
-0.00825966 -0.000716356 -0.0963972 -0.0046879 -0.000584646 -0.095107 -0.00376246 -0.000445415 -0.0954594 
-0.000713162 -0.0019514 -0.0961227 0.00419008 -0.00159225 -0.0950576 0.00823243 -0.00156681 -0.0964287 
0.014964 -0.000114199 -0.0947931 0.0223392 -0.00166383 -0.0954402 -0.02398 0.000962614 -0.095402 
-0.0218184 1.688e-05 -0.0962499 -0.0212554 0.000837836 -0.096345 -0.0206924 0.00165879 -0.09644 
-0.0124625 2.61272e-06 -0.094975 -0.0101974 0.00119314 -0.0961252 -0.00962126 0.00107114 -0.095317 
-0.00667168 0.00182488 -0.0951491 -0.0003753 0.0010069 -0.0965585 0.00829654 0.0013948 -0.0958723 
[...]
POINT_DATA 18748
FIELD FieldData 2
id 1 18748 int
14695 14198 14816 18554 14707 17334 12479 12477 12478 
12476 12480 11840 11836 11838 11837 11839 15389 4482 
4484 1298 1296 1300 6859 17540 17888 13224 13222 
13223 13221 13225 4485 4481 3969 4483 14020 14016 
1299 14018 1297 14017 14019 6856 6858 6857 18394 
14650 6790 6786 6788 17781 14800 6860 7207 7209 
4795 4791 4793 15276 6787 6789 6970 6966 6968 
14633 16253 4800 7206 7208 11475 11471 4792 4794 
18604 18707 18371 14264 4799 4797 4798 4796 16686 
11473 11472 11474 17715 3564 16815 7480 7476 7478 
12751 12755 5644 15062 2733 2732 2734 16821 18407 
15680 3424 3422 7477 7479 12753 14422 5642 5643 
5641 2735 2731 7849 7847 12389 5966 5970 17328 
3423 3421 3425 7880 7876 5645 10064 12388 12387 
15625 18537 18084 7878 7877 7879 15469 15866 10062 
10063 12386 12390 15460 4165 4161 4163 4162 4164 
18050 16859 5194 5192 5193 5191 5195 17098 15883 
15421 15967 4769 4767 4768 4766 4770 9472 9473 
9471 9475 14371 14442 16746 15159 15568 13269 17364 
15533 8277 8279 14864 3970 9280 9276 9278 9277 
9279 17084 14581 14234 18267 16067 9624 9622 9623 
404 18416 13267 13268 13804 13802 13803 13801 13805 
8278 8001 8005 3968 3966 4155 4151 4153 4152 
4154 4236 4240 9554 9552 9553 9551 9555 6226 
6230 15370 13270 13266 15180 8004 8002 8003 18348 
3967 3252 3254 16152 4237 4238 14168 17804 13584 
13582 13583 13581 13585 17257 17423 6967 6969 17351 
17686 4239 8097 8099 18261 14045 14041 14043 14042 
10085 12992 12994 18014 764 17521 6614 7414 16012 
15250 7210 15223 8096 8098 12730 16252 14044 5799 
4486 4490 17657 14958 14052 14054 14257 16205 8100 
2725 14723 17134 5797 5798 5796 14988 1904 1902 
18172 17827 17019 11214 16290 14930 5800 3562 3563 
15921 12752 17442 18366 9943 9942 9944 16525 14817 
1654 18134 3561 3565 1720 15340 14937 12754 8452 
8454 9945 9941 7850 7846 7848 7928 7927 7926 
7930 9988 9987 9989 15459 1653 1652 15038 16509 
5969 5968 5967 684 682 683 681 685 7921 
7923 7922 7924 2277 2278 2276 13899 8501 8503 
8502 10061 6760 17794 1655 1651 12210 12206 12208 
12207 15030 674 672 673 671 675 5888 5890 
5886 2279 13897 14819 8504 10065 9140 9136 9138 
9137 9139 16817 17971 5889 5887 14872 18303 9474 
18312 15585 15802 900 896 16299 3609 3607 3608 
16249 14384 16230 5694 5692 5693 5691 5695 18021 
15886 16593 15487 17276 9621 9625 17911 403 402 
18018 9879 16762 8280 8276 9128 9127 9129 3255 
3251 3253 17604 15486 12199 16848 17449 10084 12709 
12707 3029 6229 6227 6228 390 1704 1795 1791 
1793 1792 1794 8435 4545 4541 15178 10911 12197 
14554 18527 6363 10081 10083 10082 3030 3026 3028 
3027 16024 15726 17411 17976 16618 16853 8431 8433 
8432 8434 4543 4542 16286 10915 14253 3604 3602 
6364 6362 14034 250 246 15862 762 763 761 
765 6260 6612 6613 6611 7413 7412 16493 16730 
4544 15548 12726 3603 3601 18218 17183 12995 12991 
12993 9651 9653 9652 9654 18379 6615 14208 14055 
14051 14053 15304 784 16691 18572 12728 12727 3605 
3509 15425 17992 16047 3125 4489 4487 4488 1903 
1901 1905 16433 782 783 781 10632 11212 11213 
11211 2721 2723 8154 8152 3507 3508 3506 16099 
9375 9371 16847 15515 1719 17550 14881 14157 5544 
5542 5543 785 10635 10631 10633 17628 14510 8153 
15878 17187 6965 17608 1717 1718 1716 12780 12776 
12778 12777 12779 7782 7784 16514 2280 8505 7929 
9990 9986 14336 7733 7731 7735 16874 12209 1253 
6963 6961 1060 1056 5595 14849 3904 7783 7925 
8455 8451 8453 14900 15826 15538 7734 7732 14475 
15046 14879 1255 1251 6962 6964 1058 1057 1059 
5592 5593 5591 3901 3903 3902 16506 15588 13898 
13896 13900 16674 6759 6757 6758 6756 15835 10495 
10491 10493 16565 16680 15065 5594 17470 14866 14668 
16203 18288 16354 14629 18265 18402 16861 898 897 
899 13574 13572 13573 18005 1204 1202 1203 1201 
1205 3606 3610 15029 6299 6297 6298 6296 6300 
6731 6735 18273 14990 16247 12710 12706 12708 15995 
405 401 18089 18624 14831 18113 5959 5957 5958 
5956 5960 16496 11717 11718 11719 3374 3372 6365 
17625 389 387 386 388 1703 1702 3453 3451 
3455 9880 9876 9877 9878 15110 9130 9126 17285 
10914 10912 10913 12200 12196 12198 12596 12600 12598 
11223 11720 11716 3200 9024 9022 6361 9023 8205 
8201 8203 8202 8204 14738 13672 13674 3454 3452 
4079 4077 4078 14660 11405 11401 8739 8737 8738 
8736 8740 18096 11225 11221 1259 1257 1258 1256 
1260 3198 3196 3197 3199 4644 4642 4643 14032 
14033 248 247 249 15850 16360 9655 14732 17885 
6256 4076 7744 4080 7415 7411 15952 11403 11402 
11404 14805 18714 8984 8982 5554 5552 5553 5551 
5555 10574 10572 10573 2489 2487 2488 7320 864 
862 863 18490 6257 6258 7741 7743 7742 15810 
18485 1245 8164 8983 8981 17745 12729 15659 16394 
7651 7655 2486 2490 9372 9374 18310 15448 18437 
3124 3122 3121 3123 861 865 12944 7745 14826 
16923 11494 11492 11493 11491 11495 10634 8985 11215 
2722 2724 3510 7652 7653 9649 9647 9648 9646 
9650 9373 9254 9252 15232 10554 17939 18492 12942 
12943 12941 16194 12470 16402 1780 6780 10989 10987 
10988 10986 10990 14673 8151 7654 12954 12952 12953 
4474 1005 1001 10555 10551 10553 10552 11723 18640 
7205 12945 12466 12468 14766 18459 1776 5541 5545 
4409 4407 8155 7125 7121 7123 7122 1252 1254 
14387 18338 11724 11722 17034 7201 7203 4682 4684 
7781 7785 16366 14981 3216 3220 16867 11362 11363 
11361 11365 7124 15262 17892 4679 4677 18144 18016 
6575 15322 3905 7202 17024 3723 3722 3724 15213 
3219 3217 3218 14368 11364 13119 10492 10494 14062 
4680 4676 4678 16884 14639 2339 2337 2338 2336 
2340 15129 14631 6274 6272 6273 6271 6275 14418 
14396 17903 17249 14955 13571 13575 7044 7042 17053 
18747 15004 15361 15834 7605 7601 7603 14786 16190 
18457 6734 6732 6733 14217 12999 12997 12998 12996 
13000 18400 15485 10813 10812 10814 4980 4976 4978 
4977 17920 7043 7041 18472 16370 17354 16213 7602 
7604 16928 2619 2617 2618 15684 11224 15010 3373 
3371 3375 10815 10811 17893 17403 7045 16678 3385 
3381 3383 3384 3382 1705 1701 16314 16344 17750 
18023 15376 15205 12860 12856 12858 12857 12859 11222 
15063 42 9021 9025 4641 4645 18643 17846 12394 
16822 13675 13671 13673 3277 3278 3276 3280 16671 
18469 6268 6267 6269 18004 16528 16712 119 117 
118 12599 12597 14622 44 17791 17382 14031 14035 
53 9896 9898 9900 12391 12393 12392 15714 3931 
3935 15153 14229 2209 5199 116 17306 10571 54 
9899 52 9897 6356 6360 14484 17617 17145 7317 
7318 7316 3934 3932 3933 6259 11596 11600 17990 
17592 1244 1242 1243 1241 14586 8162 17497 3270 
3266 16438 9169 9167 9168 11439 11437 11438 10575 
16871 6056 6060 6359 6358 6357 9064 6410 6406 
6408 6409 6407 11259 7319 8345 8341 17102 11598 
15306 11350 11346 11348 11347 11349 8163 8161 8165 
6543 6542 17221 16731 11436 11440 4471 4475 9062 
9061 9063 18306 14348 9253 9251 9255 17441 8343 
8342 8344 1908 1906 1910 16873 15998 12382 12384 
17944 6776 6778 17073 14860 6545 6541 1215 1211 
1213 1212 1214 17167 17368 6150 4472 4473 18548 
9065 16902 15347 11721 11725 15510 11122 11124 4685 
4683 4681 14675 1779 1777 1778 14530 2634 4408 
4406 4410 4075 4071 4073 4072 12951 12955 17544 
15483 15420 14975 1003 1002 1004 15077 17045 604 
4066 4070 12467 12469 18107 18513 18117 12964 12962 
12963 12961 12965 4074 18246 13034 13032 13033 13031 
13035 14568 6571 6573 7204 3725 3721 6546 15096 
18523 14953 18410 15736 13117 13118 17092 16459 15865 
16256 17230 18711 12625 15031 16077 17174 6549 6547 
6548 14489 16906 10904 10902 10903 10901 10905 17785 
3399 3398 3397 3396 3400 13116 13120 16278 10383 
10381 10385 18534 18314 11884 11882 11883 12720 12716 
8329 17010 6515 16429 17206 10611 10615 1742 1744 
1741 1743 1745 12660 12656 12658 15882 4979 17618 
16813 6610 13490 13486 13488 13487 13489 12718 12717 
8327 8328 8326 2924 2922 9316 9318 18212 7815 
7811 7813 7812 11586 7814 1310 11590 1306 1308 
1309 1307 45 41 15384 5990 6609 6607 6608 
6606 15395 14099 12719 8330 12506 12510 2923 14172 
2616 2620 17405 9320 16406 14188 43 10760 10756 
17217 14281 16435 3279 18474 6266 8059 8057 8058 
8056 8060 16103 4285 4281 11485 11481 11483 11482 
11484 18335 1595 1591 18355 16655 51 55 10758 
10757 12074 12395 17468 15740 7161 7163 7162 7164 
6270 8444 8442 10425 7019 18649 2210 2206 2208 
2207 5197 5198 4283 4282 4284 3269 3267 120 
15283 10938 10936 10940 4289 11639 11637 11638 11636 
11640 8325 8321 6871 6873 1270 1266 1268 12424 
13810 17907 16552 7165 15999 18479 18464 8443 8441 
10421 7017 7018 17163 5196 5200 5070 5066 3268 
8419 8417 6544 10939 10937 7290 13744 14461 6059 
6058 6057 8323 8322 6875 8324 2045 2041 2043 
2042 2044 12423 12422 11260 11256 11258 11257 7614 
4512 4513 4511 14499 16162 14061 10031 11597 10035 
7020 7016 12385 12381 5068 5067 5069 14239 18687 
9166 9170 17548 7613 7612 4515 469 14680 6745 
6741 6743 6742 6744 11599 1907 14215 6106 6108 
6107 12383 2032 6777 2031 2033 2035 12419 9665 
9661 9663 9662 9664 6232 6234 18248 6146 6148 
6147 6149 16768 15378 15931 7611 7615 14891 603 
1909 11121 11123 8527 8529 11547 11548 11546 11550 
6109 16617 6779 12416 12418 12417 2632 15957 14922 
6231 6235 6233 15658 15712 9066 9068 9070 17339 
18209 602 4067 4068 18171 15501 16818 905 18585 
12420 14319 2635 2633 2631 16083 14619 16365 14993 
10260 10256 10258 10257 10259 6470 6466 6468 6467 
6469 16966 6572 6574 4069 15430 17315 14753 6550 
1944 1942 1943 1941 1945 2744 2742 2743 2741 
2745 18072 11050 11046 16598 5629 15980 17985 17250 
12621 12623 3330 3326 3328 3327 3329 18249 3839 
14459 18389 3350 10560 10556 10344 10342 10343 10341 
10345 16885 17699 11537 11539 12676 12680 12677 12678 
12679 16242 15503 15349 16005 18607 14745 15543 10384 
10382 16956 4891 4895 16964 16868 17858 4847 4849 
11881 11885 17644 17005 15207 6514 6512 6513 6511 
10614 10612 10613 17532 16106 12657 12659 14834 5989 
5987 14598 2391 2395 7702 14932 12789 16685 7664 
6248 6247 4419 679 17210 1834 18568 14216 9319 
9317 11589 11587 11588 17887 7909 5986 5988 18121 
2394 2392 2393 18540 7704 7881 7885 7662 7663 
7661 18445 6249 5520 17462 8961 8963 8962 12507 
12508 15965 2921 14378 14354 17287 6237 6239 6236 
6238 6240 1594 13865 13861 986 990 7910 7906 
7908 7907 14187 17762 12072 12073 3680 9368 9366 
9370 17796 10022 10024 16927 11749 14226 8964 2925 
18684 1593 1592 988 987 989 4288 17412 14773 
16332 14752 1269 5214 13809 3676 3678 7330 7326 
7328 7327 7329 18401 15552 15155 17160 14645 13264 
13262 13263 13261 13265 14970 16159 14163 15032 16634 
13195 4287 15382 6872 6874 10759 1267 13807 13808 
13806 17177 4514 6835 6831 6833 6832 6834 7339 
13039 10423 10424 10422 17012 16940 14987 884 8418 
9431 9433 9435 7289 7287 7288 7286 13193 13191 
13742 13743 13741 10585 10581 17564 16018 1842 12425 
12421 15660 9184 18129 13614 14084 13038 13037 8445 
16830 15258 15438 18031 14331 15639 8416 8420 8827 
16891 15107 18716 17900 10583 10582 16574 16292 1843 
1841 1845 7790 17198 14501 17891 15584 468 467 
10034 10032 10033 3465 7864 6110 17078 2034 14670 
8829 13344 13342 13343 13341 13345 16145 10584 16372 
6090 1304 1302 1305 1303 1301 12874 5965 7212 
7213 601 605 8526 8528 7862 11549 8565 8561 
8563 903 902 904 16991 18544 15416 10887 10889 
10888 17659 9067 7053 7052 17190 1620 1874 1872 
6086 1873 1871 1875 14474 15958 10594 7214 11125 
18027 16134 901 15827 16696 17380 10886 10890 11047 
11049 11048 14980 9069 7051 7055 14189 17240 10592 
10593 9354 9352 9353 16291 3837 3838 3836 17121 
16189 15377 15907 18681 5380 5376 5378 17479 5627 
5628 17875 15060 14962 17337 17366 12622 12624 16408 
10591 10595 9351 16179 1985 3347 3348 3346 16095 
10558 10557 10559 16740 15863 11540 11536 11538 17936 
18298 7344 7342 16350 1485 17397 4894 4893 4892 
12786 9077 9079 15671 4850 4846 4848 14744 10476 
10480 1835 1831 1833 16758 16033 6536 6540 10315 
10311 10313 10312 10314 15413 14875 17758 17736 18133 
7705 7701 7703 8546 8550 10129 10128 10127 12787 
12788 7730 6250 6246 4420 4416 4417 4418 5517 
678 677 1832 658 656 660 6329 6539 6537 
6538 14644 14699 15068 16643 13863 13862 13864 16011 
14811 5215 17101 7444 9369 7884 7883 7882 13041 
13043 13044 13042 7726 7728 14065 11746 11747 11748 
9074 5516 5518 8965 12509 10894 15940 3740 12302 
12304 979 977 978 3748 3747 3749 5212 5213 
5211 12075 12071 9367 3206 3210 10025 10023 10021 
7727 7729 7665 9395 17645 16881 10276 10280 18365 
14549 17824 16571 14913 12303 14944 13138 13136 13140 
4286 4290 3750 3746 16832 15185 16516 5433 5432 
5434 16027 16431 11924 17610 13989 13987 13988 13986 
13990 16122 883 881 9434 9432 13139 13137 1349 
1347 17764 15772 11780 16331 3677 3679 5939 14166 
11576 11580 15371 7336 7337 7338 11922 6007 6008 
6006 15163 9893 9894 9892 882 17466 8830 18235 
13192 13745 504 502 503 225 11776 11778 11777 
1844 3260 18461 9181 9183 9182 209 207 208 
13611 13612 13613 13040 13036 18633 6010 15145 9510 
9506 9508 9507 9509 18483 13882 8828 8826 17932 
12077 12079 13194 9302 9304 2125 2121 8349 8347 
8348 8346 221 222 223 11779 14453 16359 16236 
16560 10144 10142 16490 3393 3392 3394 5944 470 
466 206 210 5962 5964 3464 3462 3461 3463 
14956 17054 2250 2246 2248 2247 15124 13881 13883 
12080 12076 12078 16511 3646 3650 3648 3647 3649 
14074 7054 224 7789 7787 7786 7788 3395 3391 
15787 5942 5943 5941 12872 5961 5963 7211 7215 
6699 8530 8384 7863 15134 9911 9915 9912 9913 
8562 8564 17318 13885 8119 8117 8118 8116 8120 
15688 6088 6089 6087 12033 12034 12032 18034 6708 
5945 12873 12871 18732 1929 15513 7861 7865 10500 
9914 2000 16104 17387 18178 5377 5379 15054 7145 
7141 4105 17546 5630 5626 1618 1616 1619 1617 
14527 6706 6710 1825 17415 5828 5827 5829 1926 
1928 1927 13230 3840 15025 10496 10498 17139 770 
7625 7143 7142 7144 11490 11486 11488 16405 14618 
16392 1199 1197 1198 1196 1200 11913 11911 11915 
16391 8014 8013 8012 1930 9355 1982 1981 1983 
17456 3349 9923 9921 9925 10499 10497 17738 16094 
15750 2660 2656 7040 7036 7038 16556 7343 7341 
7345 15803 14594 1481 1483 2995 2991 18594 12790 
9078 9080 9076 17938 1165 9500 9496 1161 9498 
1163 1162 1164 16843 10479 10477 10478 2688 2686 
2690 15789 2483 2482 2484 7406 7408 7410 16465 
5123 5122 5124 16744 15464 17209 14145 8549 8548 
8547 2993 10126 5444 9071 16362 16131 5519 676 
680 16607 16069 659 657 6326 6328 6327 3753 
3751 3752 3754 5125 5121 15173 3739 3737 3738 
4046 15981 16303 18698 7442 7443 12586 12590 10130 
13045 5442 5443 17529 11750 9073 9072 14782 17825 
16577 10895 10891 10893 10892 547 548 549 12861 
12865 12863 12862 47 49 3736 4047 4049 4048 
17776 976 980 14542 18224 15670 17741 14279 3208 
3207 14271 5441 5445 9394 9392 9391 9393 15633 
16215 10278 10277 10279 13054 17780 12864 14139 12301 
9788 1346 1350 16030 16228 14654 17763 1829 1816 
1820 5435 5431 2749 14443 18730 4773 4772 4774 
4081 13052 16728 885 18473 14397 12305 9790 9786 
15183 1348 16905 2629 2627 18388 14813 17612 5937 
5936 5938 11579 11577 11578 14643 17071 7340 15664 
15880 11923 11921 6009 4083 4082 4084 9895 9891 
2087 2089 2088 2086 2090 4241 4243 4242 4244 
16513 18242 501 505 17444 3257 3258 3256 5548 
5546 5550 11419 9185 14612 9426 9430 13615 15636 
9528 9526 11925 14806 14807 17528 575 4245 13884 
16582 9305 9301 9303 1609 2123 2122 2124 8350 
16839 11010 1783 10143 1781 1785 169 167 168 
744 14297 15033 7914 7912 6696 6698 9530 15962 
13494 18741 2249 1419 1417 1418 1416 1420 14151 
14220 15927 2533 2531 2535 10145 10141 18125 741 
743 742 18316 17263 17882 18260 6697 8494 7724 
13409 13407 13408 13410 13406 18434 16351 7740 2532 
18132 12035 12031 16573 6709 6707 18225 12875 8692 
8693 8691 5344 5342 1139 1137 1138 1136 1140 
8382 8383 8381 8385 13459 13457 5540 5536 5538 
5537 5539 1996 1998 1635 14291 6386 6390 2934 
2932 17619 17291 15771 4101 4103 15467 13017 13019 
15911 1822 1823 1821 5830 5826 8695 13229 13227 
13228 13226 17683 13458 13456 13460 1030 1026 1028 
1027 1029 17836 14925 766 768 767 769 7621 
7623 7622 7624 11487 11489 18098 14991 17129 13020 
13016 13018 11914 11912 16692 8015 8011 15426 1984 
17777 9922 9924 14901 18190 16120 14587 7000 6996 
6998 2658 2657 2659 7037 7039 17672 15813 16537 
1482 1484 14850 15891 16610 4293 4292 4294 9497 
9499 9547 9549 2689 2687 14029 452 454 12497 
12499 2485 2481 7409 7407 18735 11713 11712 11714 
2849 16808 2992 4510 2994 15651 4295 4291 9075 
16624 13387 13389 18307 451 453 12496 12498 6330 
3755 2564 17280 16890 15318 17455 4050 17214 11711 
7441 7445 12589 12587 12588 17555 385 381 383 
382 384 9385 10662 10664 455 12500 17890 550 
546 7272 7273 7271 7275 48 11030 11026 5585 
5581 9789 16184 5256 5260 15082 1826 1828 855 
1818 1817 1819 3209 18717 18057 12745 12741 4654 
15049 7274 5561 17565 46 50 6955 11028 11027 
11029 5583 9787 16540 3176 3180 17640 3087 1827 
3088 18156 8511 8515 18689 2747 14698 12743 14848 
5399 4085 5465 13051 13053 5564 5562 5563 18654 
17513 18427 8439 2628 2626 2630 14138 17933 14567 
3086 3090 5549 5940 13936 13940 17803 2748 3759 
3757 3758 3756 4771 4775 15016 13055 14477 572 
14391 18467 16757 1610 1606 1608 8437 8438 12609 
7835 7831 3259 9029 5547 11416 11417 11418 15592 
7911 7915 9527 9529 3760 8478 8477 8479 18047 
15346 571 573 16316 8915 15898 1607 8436 8440 
12606 12610 12608 12607 7833 7832 1784 1782 16381 
166 170 16549 7674 9429 9428 9427 7913 17111 
6700 8495 8491 8493 7148 7147 7149 13493 13492 
18567 5015 5011 5013 5012 5014 14131 11115 11111 
8911 16918 4620 4616 16150 7834 11006 11008 11007 
16137 2299 5524 5522 5523 3539 8694 5343 5341 
5345 3943 8492 3942 18650 7722 7721 7723 7725 
1999 16422 11113 11112 14140 7736 15003 1403 1402 
1404 2534 11798 18683 745 3458 16581 3537 3538 
3536 3540 14909 17500 15626 14553 3944 1940 1936 
1997 6387 6389 6388 11114 7737 7738 1405 1401 
4102 4104 3689 18623 11800 11796 16637 6556 6560 
3457 3459 12457 12459 1824 14517 5781 5785 15019 
17384 1632 1634 1631 1633 17261 14989 14976 7739 
2933 2931 2935 18682 17459 16670 18658 17471 6979 
16684 16112 16143 15770 10417 10418 10419 14374 14647 
14571 6997 6999 18195 17826 16116 15812 15293 4778 
4776 4780 17133 2448 2447 2449 9546 9548 18053 
17006 14030 14026 14027 14028 6117 6119 15842 2720 
2565 18391 15191 18085 17989 2847 4506 3008 3007 
3009 16551 17356 13386 13388 16254 17773 2716 2718 
2717 2719 2561 2562 2563 11877 11878 11876 16279 
14758 11715 2848 2846 4509 4507 4508 14885 14447 
17154 16051 4655 9382 9383 9381 10665 10661 10663 
17766 10463 5294 5292 5293 15265 14393 14555 6952 
6954 6953 6951 965 11880 15527 16384 5259 5257 
5258 6949 6947 15268 1830 854 852 853 851 
15074 18197 4652 4651 4653 16921 10461 10465 6033 
5291 5295 1406 5565 7695 963 961 5582 5584 
1396 2947 2949 3179 3177 3178 6948 6946 2730 
2726 2728 2727 3089 13939 13937 13938 8513 8514 
8512 9335 9331 14407 12742 12744 5397 5398 5463 
5461 6034 6032 1410 16535 844 1545 1541 1543 
1542 1544 962 964 18602 1400 2948 13951 13955 
6950 3472 18542 14717 2746 2750 17869 18252 17639 
5396 5400 5462 17307 17627 9047 9049 14677 17180 
574 14233 2738 2736 2740 11184 11182 9094 1412 
1414 3474 9027 9028 16342 11420 16244 11625 11621 
17095 8476 8480 14221 9050 9048 9046 16488 2739 
2737 18112 8312 8314 15284 14361 5525 7671 7672 
7673 11623 17852 14382 16298 7150 7146 1525 13491 
13495 9485 8101 18141 18111 290 17325 8913 8912 
8914 16553 11009 2300 2296 2298 2297 16263 13732 
5521 7675 16770 18105 16317 4140 3115 3111 3239 
3945 3941 1522 1521 1523 16025 14358 9481 9483 
8105 14507 14376 4707 4709 240 4618 4617 6918 
6917 6919 11503 11505 11501 5999 5997 11797 11799 
3456 3460 13734 2840 2836 2838 3113 3112 15408 
1938 9484 9482 17913 16919 4708 236 238 237 
239 4619 3690 3687 3688 3686 12460 12458 12456 
2837 2839 4521 14390 17518 5784 5782 5783 3114 
4249 4247 4248 16390 1937 16924 15526 7265 7261 
17069 17081 15021 9764 6558 6559 6557 18648 6976 
6978 6977 4524 4523 4522 18254 14316 96 100 